<?xml version="1.0" encoding="UTF-8"?>

<!-- generated on 2024-05-27 12:04:58 by Eclipse SUMO sumo Version 1.20.0
<configuration xmlns:xsi="http://www.w3.org/2001/XMLSchema-instance" xsi:noNamespaceSchemaLocation="http://sumo.dlr.de/xsd/sumoConfiguration.xsd">

    <input>
        <net-file value="sumo_rl/nets/2way-single-intersection/single-intersection.net.xml"/>
        <route-files value="sumo_rl/nets/2way-single-intersection/single-intersection-vhvh.rou.xml"/>
    </input>

    <processing>
        <time-to-teleport value="-1"/>
        <waiting-time-memory value="1000"/>
        <max-depart-delay value="-1"/>
    </processing>

    <report>
        <no-warnings value="true"/>
    </report>

    <traci_server>
        <remote-port value="59891"/>
    </traci_server>

    <random_number>
        <random value="true"/>
    </random_number>

</configuration>
-->

<detector xmlns:xsi="http://www.w3.org/2001/XMLSchema-instance" xsi:noNamespaceSchemaLocation="http://sumo.dlr.de/xsd/det_e2_file.xsd">
   <interval begin="0.00" end="900.00" id="myLoop1" sampledSeconds="2738.88" nVehEntered="173" nVehLeft="166" nVehSeen="173" meanSpeed="3.40" meanTimeLoss="11.87" meanOccupancy="29.17" maxOccupancy="67.99" meanMaxJamLengthInVehicles="1.44" meanMaxJamLengthInMeters="9.57" maxJamLengthInVehicles="7" maxJamLengthInMeters="49.00" jamLengthInVehiclesSum="1295" jamLengthInMetersSum="8615.79" meanHaltingDuration="9.69" maxHaltingDuration="22.00" haltingDurationSum="1444.00" meanIntervalHaltingDuration="9.69" maxIntervalHaltingDuration="22.00" intervalHaltingDurationSum="1444.00" startedHalts="149.00" meanVehicleNumber="3.23" maxVehicleNumber="7" />
   <interval begin="0.00" end="900.00" id="myLoop2" sampledSeconds="658.92" nVehEntered="50" nVehLeft="50" nVehSeen="50" meanSpeed="4.17" meanTimeLoss="9.21" meanOccupancy="6.98" maxOccupancy="24.18" meanMaxJamLengthInVehicles="0.35" meanMaxJamLengthInMeters="2.14" maxJamLengthInVehicles="2" maxJamLengthInMeters="12.80" jamLengthInVehiclesSum="318" jamLengthInMetersSum="1922.22" meanHaltingDuration="11.96" maxHaltingDuration="30.00" haltingDurationSum="347.00" meanIntervalHaltingDuration="11.96" maxIntervalHaltingDuration="30.00" intervalHaltingDurationSum="347.00" startedHalts="29.00" meanVehicleNumber="0.79" maxVehicleNumber="3" />
   <interval begin="0.00" end="900.00" id="myLoop3" sampledSeconds="2680.34" nVehEntered="174" nVehLeft="169" nVehSeen="174" meanSpeed="3.53" meanTimeLoss="11.42" meanOccupancy="28.64" maxOccupancy="67.99" meanMaxJamLengthInVehicles="1.35" meanMaxJamLengthInMeters="8.92" maxJamLengthInVehicles="7" maxJamLengthInMeters="49.00" jamLengthInVehiclesSum="1217" jamLengthInMetersSum="8029.75" meanHaltingDuration="9.11" maxHaltingDuration="21.00" haltingDurationSum="1367.00" meanIntervalHaltingDuration="9.11" maxIntervalHaltingDuration="21.00" intervalHaltingDurationSum="1367.00" startedHalts="150.00" meanVehicleNumber="3.16" maxVehicleNumber="7" />
   <interval begin="0.00" end="900.00" id="myLoop4" sampledSeconds="672.61" nVehEntered="50" nVehLeft="50" nVehSeen="50" meanSpeed="4.09" meanTimeLoss="9.55" meanOccupancy="7.14" maxOccupancy="29.55" meanMaxJamLengthInVehicles="0.35" meanMaxJamLengthInMeters="2.13" maxJamLengthInVehicles="2" maxJamLengthInMeters="13.01" jamLengthInVehiclesSum="316" jamLengthInMetersSum="1914.80" meanHaltingDuration="11.19" maxHaltingDuration="29.00" haltingDurationSum="347.00" meanIntervalHaltingDuration="11.19" maxIntervalHaltingDuration="29.00" intervalHaltingDurationSum="347.00" startedHalts="31.00" meanVehicleNumber="0.81" maxVehicleNumber="3" />
   <interval begin="900.00" end="1800.00" id="myLoop1" sampledSeconds="3178.98" nVehEntered="176" nVehLeft="182" nVehSeen="183" meanSpeed="3.10" meanTimeLoss="13.49" meanOccupancy="33.70" maxOccupancy="67.99" meanMaxJamLengthInVehicles="1.84" meanMaxJamLengthInMeters="12.33" maxJamLengthInVehicles="7" maxJamLengthInMeters="49.00" jamLengthInVehiclesSum="1655" jamLengthInMetersSum="11094.55" meanHaltingDuration="12.13" maxHaltingDuration="30.00" haltingDurationSum="1893.00" meanIntervalHaltingDuration="11.56" maxIntervalHaltingDuration="30.00" intervalHaltingDurationSum="1804.00" startedHalts="149.00" meanVehicleNumber="3.73" maxVehicleNumber="7" />
   <interval begin="900.00" end="1800.00" id="myLoop2" sampledSeconds="735.06" nVehEntered="50" nVehLeft="50" nVehSeen="50" meanSpeed="3.74" meanTimeLoss="10.73" meanOccupancy="7.85" maxOccupancy="30.00" meanMaxJamLengthInVehicles="0.42" meanMaxJamLengthInMeters="2.46" maxJamLengthInVehicles="3" maxJamLengthInMeters="20.06" jamLengthInVehiclesSum="375" jamLengthInMetersSum="2212.71" meanHaltingDuration="11.71" maxHaltingDuration="45.00" haltingDurationSum="410.00" meanIntervalHaltingDuration="11.71" maxIntervalHaltingDuration="45.00" intervalHaltingDurationSum="410.00" startedHalts="35.00" meanVehicleNumber="0.87" maxVehicleNumber="3" />
   <interval begin="900.00" end="1800.00" id="myLoop3" sampledSeconds="3127.45" nVehEntered="176" nVehLeft="177" nVehSeen="181" meanSpeed="3.10" meanTimeLoss="13.37" meanOccupancy="33.23" maxOccupancy="67.99" meanMaxJamLengthInVehicles="1.78" meanMaxJamLengthInMeters="11.93" maxJamLengthInVehicles="7" maxJamLengthInMeters="50.00" jamLengthInVehiclesSum="1602" jamLengthInMetersSum="10733.44" meanHaltingDuration="11.29" maxHaltingDuration="27.00" haltingDurationSum="1806.00" meanIntervalHaltingDuration="10.98" maxIntervalHaltingDuration="27.00" intervalHaltingDurationSum="1757.00" startedHalts="155.00" meanVehicleNumber="3.67" maxVehicleNumber="7" />
   <interval begin="900.00" end="1800.00" id="myLoop4" sampledSeconds="595.36" nVehEntered="50" nVehLeft="50" nVehSeen="50" meanSpeed="4.62" meanTimeLoss="7.91" meanOccupancy="6.28" maxOccupancy="20.00" meanMaxJamLengthInVehicles="0.28" meanMaxJamLengthInMeters="1.65" maxJamLengthInVehicles="2" maxJamLengthInMeters="12.69" jamLengthInVehiclesSum="253" jamLengthInMetersSum="1488.01" meanHaltingDuration="9.16" maxHaltingDuration="28.00" haltingDurationSum="284.00" meanIntervalHaltingDuration="9.16" maxIntervalHaltingDuration="28.00" intervalHaltingDurationSum="284.00" startedHalts="31.00" meanVehicleNumber="0.71" maxVehicleNumber="3" />
   <interval begin="1800.00" end="2700.00" id="myLoop1" sampledSeconds="4076.00" nVehEntered="171" nVehLeft="166" nVehSeen="172" meanSpeed="2.28" meanTimeLoss="19.70" meanOccupancy="43.34" maxOccupancy="69.79" meanMaxJamLengthInVehicles="2.69" meanMaxJamLengthInMeters="18.41" maxJamLengthInVehicles="7" maxJamLengthInMeters="50.00" jamLengthInVehiclesSum="2423" jamLengthInMetersSum="16567.51" meanHaltingDuration="13.62" maxHaltingDuration="28.00" haltingDurationSum="2615.00" meanIntervalHaltingDuration="13.62" maxIntervalHaltingDuration="28.00" intervalHaltingDurationSum="2615.00" startedHalts="192.00" meanVehicleNumber="4.71" maxVehicleNumber="7" />
   <interval begin="1800.00" end="2700.00" id="myLoop2" sampledSeconds="727.45" nVehEntered="50" nVehLeft="50" nVehSeen="50" meanSpeed="3.78" meanTimeLoss="10.49" meanOccupancy="7.72" maxOccupancy="20.00" meanMaxJamLengthInVehicles="0.42" meanMaxJamLengthInMeters="2.47" maxJamLengthInVehicles="2" maxJamLengthInMeters="13.50" jamLengthInVehiclesSum="376" jamLengthInMetersSum="2224.27" meanHaltingDuration="13.13" maxHaltingDuration="25.00" haltingDurationSum="407.00" meanIntervalHaltingDuration="13.13" maxIntervalHaltingDuration="25.00" intervalHaltingDurationSum="407.00" startedHalts="31.00" meanVehicleNumber="0.87" maxVehicleNumber="2" />
   <interval begin="1800.00" end="2700.00" id="myLoop3" sampledSeconds="4007.74" nVehEntered="171" nVehLeft="169" nVehSeen="175" meanSpeed="2.33" meanTimeLoss="19.05" meanOccupancy="42.55" maxOccupancy="67.99" meanMaxJamLengthInVehicles="2.60" meanMaxJamLengthInMeters="17.72" maxJamLengthInVehicles="7" maxJamLengthInMeters="49.00" jamLengthInVehiclesSum="2340" jamLengthInMetersSum="15947.69" meanHaltingDuration="13.21" maxHaltingDuration="28.00" haltingDurationSum="2536.00" meanIntervalHaltingDuration="13.18" maxIntervalHaltingDuration="28.00" intervalHaltingDurationSum="2530.00" startedHalts="190.00" meanVehicleNumber="4.65" maxVehicleNumber="7" />
   <interval begin="1800.00" end="2700.00" id="myLoop4" sampledSeconds="774.15" nVehEntered="50" nVehLeft="50" nVehSeen="50" meanSpeed="3.55" meanTimeLoss="11.50" meanOccupancy="8.27" maxOccupancy="20.00" meanMaxJamLengthInVehicles="0.46" meanMaxJamLengthInMeters="2.76" maxJamLengthInVehicles="2" maxJamLengthInMeters="13.53" jamLengthInVehiclesSum="415" jamLengthInMetersSum="2481.93" meanHaltingDuration="12.86" maxHaltingDuration="25.00" haltingDurationSum="450.00" meanIntervalHaltingDuration="12.86" maxIntervalHaltingDuration="25.00" intervalHaltingDurationSum="450.00" startedHalts="35.00" meanVehicleNumber="0.92" maxVehicleNumber="2" />
   <interval begin="2700.00" end="3600.00" id="myLoop1" sampledSeconds="2360.07" nVehEntered="180" nVehLeft="184" nVehSeen="186" meanSpeed="4.23" meanTimeLoss="8.77" meanOccupancy="25.01" maxOccupancy="67.99" meanMaxJamLengthInVehicles="1.07" meanMaxJamLengthInMeters="7.00" maxJamLengthInVehicles="7" maxJamLengthInMeters="49.00" jamLengthInVehiclesSum="964" jamLengthInMetersSum="6299.45" meanHaltingDuration="8.99" maxHaltingDuration="23.00" haltingDurationSum="1106.00" meanIntervalHaltingDuration="8.79" maxIntervalHaltingDuration="23.00" intervalHaltingDurationSum="1081.00" startedHalts="117.00" meanVehicleNumber="2.82" maxVehicleNumber="7" />
   <interval begin="2700.00" end="3600.00" id="myLoop2" sampledSeconds="715.11" nVehEntered="50" nVehLeft="50" nVehSeen="50" meanSpeed="3.85" meanTimeLoss="10.35" meanOccupancy="7.66" maxOccupancy="30.00" meanMaxJamLengthInVehicles="0.40" meanMaxJamLengthInMeters="2.39" maxJamLengthInVehicles="3" maxJamLengthInMeters="20.07" jamLengthInVehiclesSum="364" jamLengthInMetersSum="2149.09" meanHaltingDuration="12.38" maxHaltingDuration="44.00" haltingDurationSum="396.00" meanIntervalHaltingDuration="12.38" maxIntervalHaltingDuration="44.00" intervalHaltingDurationSum="396.00" startedHalts="32.00" meanVehicleNumber="0.85" maxVehicleNumber="3" />
   <interval begin="2700.00" end="3600.00" id="myLoop3" sampledSeconds="2438.81" nVehEntered="179" nVehLeft="183" nVehSeen="185" meanSpeed="4.07" meanTimeLoss="9.25" meanOccupancy="25.89" maxOccupancy="68.84" meanMaxJamLengthInVehicles="1.14" meanMaxJamLengthInMeters="7.52" maxJamLengthInVehicles="7" maxJamLengthInMeters="49.43" jamLengthInVehiclesSum="1027" jamLengthInMetersSum="6767.01" meanHaltingDuration="9.27" maxHaltingDuration="23.00" haltingDurationSum="1168.00" meanIntervalHaltingDuration="9.11" maxIntervalHaltingDuration="23.00" intervalHaltingDurationSum="1148.00" startedHalts="121.00" meanVehicleNumber="2.91" maxVehicleNumber="7" />
   <interval begin="2700.00" end="3600.00" id="myLoop4" sampledSeconds="788.00" nVehEntered="50" nVehLeft="50" nVehSeen="50" meanSpeed="3.49" meanTimeLoss="11.80" meanOccupancy="8.45" maxOccupancy="30.00" meanMaxJamLengthInVehicles="0.48" meanMaxJamLengthInMeters="2.81" maxJamLengthInVehicles="3" maxJamLengthInMeters="20.26" jamLengthInVehiclesSum="428" jamLengthInMetersSum="2533.04" meanHaltingDuration="13.97" maxHaltingDuration="45.00" haltingDurationSum="461.00" meanIntervalHaltingDuration="13.97" maxIntervalHaltingDuration="45.00" intervalHaltingDurationSum="461.00" startedHalts="33.00" meanVehicleNumber="0.93" maxVehicleNumber="3" />
   <interval begin="3600.00" end="4500.00" id="myLoop1" sampledSeconds="3368.29" nVehEntered="173" nVehLeft="170" nVehSeen="175" meanSpeed="2.81" meanTimeLoss="15.29" meanOccupancy="35.80" maxOccupancy="67.99" meanMaxJamLengthInVehicles="2.03" meanMaxJamLengthInMeters="13.64" maxJamLengthInVehicles="7" maxJamLengthInMeters="49.00" jamLengthInVehiclesSum="1828" jamLengthInMetersSum="12274.82" meanHaltingDuration="12.21" maxHaltingDuration="37.00" haltingDurationSum="1991.00" meanIntervalHaltingDuration="12.21" maxIntervalHaltingDuration="37.00" intervalHaltingDurationSum="1991.00" startedHalts="163.00" meanVehicleNumber="3.93" maxVehicleNumber="7" />
   <interval begin="3600.00" end="4500.00" id="myLoop2" sampledSeconds="619.43" nVehEntered="50" nVehLeft="50" nVehSeen="50" meanSpeed="4.44" meanTimeLoss="8.43" meanOccupancy="6.58" maxOccupancy="40.00" meanMaxJamLengthInVehicles="0.31" meanMaxJamLengthInMeters="1.82" maxJamLengthInVehicles="3" maxJamLengthInMeters="21.01" jamLengthInVehiclesSum="278" jamLengthInMetersSum="1641.03" meanHaltingDuration="10.27" maxHaltingDuration="35.00" haltingDurationSum="308.00" meanIntervalHaltingDuration="10.27" maxIntervalHaltingDuration="35.00" intervalHaltingDurationSum="308.00" startedHalts="30.00" meanVehicleNumber="0.74" maxVehicleNumber="4" />
   <interval begin="3600.00" end="4500.00" id="myLoop3" sampledSeconds="3522.77" nVehEntered="173" nVehLeft="170" nVehSeen="175" meanSpeed="2.69" meanTimeLoss="16.20" meanOccupancy="37.48" maxOccupancy="68.38" meanMaxJamLengthInVehicles="2.15" meanMaxJamLengthInMeters="14.57" maxJamLengthInVehicles="7" maxJamLengthInMeters="49.36" jamLengthInVehiclesSum="1939" jamLengthInMetersSum="13112.60" meanHaltingDuration="12.34" maxHaltingDuration="36.00" haltingDurationSum="2110.00" meanIntervalHaltingDuration="12.34" maxIntervalHaltingDuration="36.00" intervalHaltingDurationSum="2110.00" startedHalts="171.00" meanVehicleNumber="4.10" maxVehicleNumber="7" />
   <interval begin="3600.00" end="4500.00" id="myLoop4" sampledSeconds="684.15" nVehEntered="50" nVehLeft="50" nVehSeen="50" meanSpeed="4.02" meanTimeLoss="9.74" meanOccupancy="7.27" maxOccupancy="40.00" meanMaxJamLengthInVehicles="0.37" meanMaxJamLengthInMeters="2.21" maxJamLengthInVehicles="3" maxJamLengthInMeters="20.01" jamLengthInVehiclesSum="333" jamLengthInMetersSum="1989.20" meanHaltingDuration="11.41" maxHaltingDuration="36.00" haltingDurationSum="365.00" meanIntervalHaltingDuration="11.41" maxIntervalHaltingDuration="36.00" intervalHaltingDurationSum="365.00" startedHalts="32.00" meanVehicleNumber="0.82" maxVehicleNumber="4" />
   <interval begin="4500.00" end="5400.00" id="myLoop1" sampledSeconds="3984.66" nVehEntered="174" nVehLeft="176" nVehSeen="179" meanSpeed="2.41" meanTimeLoss="18.35" meanOccupancy="42.25" maxOccupancy="67.99" meanMaxJamLengthInVehicles="2.48" meanMaxJamLengthInMeters="16.89" maxJamLengthInVehicles="7" maxJamLengthInMeters="50.00" jamLengthInVehiclesSum="2235" jamLengthInMetersSum="15197.43" meanHaltingDuration="12.02" maxHaltingDuration="32.00" haltingDurationSum="2441.00" meanIntervalHaltingDuration="11.99" maxIntervalHaltingDuration="32.00" intervalHaltingDurationSum="2435.00" startedHalts="200.00" meanVehicleNumber="4.62" maxVehicleNumber="7" />
   <interval begin="4500.00" end="5400.00" id="myLoop2" sampledSeconds="601.45" nVehEntered="50" nVehLeft="50" nVehSeen="50" meanSpeed="4.57" meanTimeLoss="8.02" meanOccupancy="6.36" maxOccupancy="20.00" meanMaxJamLengthInVehicles="0.28" meanMaxJamLengthInMeters="1.67" maxJamLengthInVehicles="2" maxJamLengthInMeters="12.93" jamLengthInVehiclesSum="253" jamLengthInMetersSum="1502.56" meanHaltingDuration="8.91" maxHaltingDuration="23.00" haltingDurationSum="285.00" meanIntervalHaltingDuration="8.91" maxIntervalHaltingDuration="23.00" intervalHaltingDurationSum="285.00" startedHalts="32.00" meanVehicleNumber="0.73" maxVehicleNumber="2" />
   <interval begin="4500.00" end="5400.00" id="myLoop3" sampledSeconds="4050.25" nVehEntered="172" nVehLeft="174" nVehSeen="177" meanSpeed="2.35" meanTimeLoss="18.96" meanOccupancy="42.97" maxOccupancy="67.99" meanMaxJamLengthInVehicles="2.57" meanMaxJamLengthInMeters="17.47" maxJamLengthInVehicles="7" maxJamLengthInMeters="50.00" jamLengthInVehiclesSum="2309" jamLengthInMetersSum="15718.96" meanHaltingDuration="12.06" maxHaltingDuration="31.00" haltingDurationSum="2521.00" meanIntervalHaltingDuration="12.04" maxIntervalHaltingDuration="31.00" intervalHaltingDurationSum="2516.00" startedHalts="207.00" meanVehicleNumber="4.68" maxVehicleNumber="7" />
   <interval begin="4500.00" end="5400.00" id="myLoop4" sampledSeconds="631.90" nVehEntered="50" nVehLeft="50" nVehSeen="50" meanSpeed="4.35" meanTimeLoss="8.76" meanOccupancy="6.69" maxOccupancy="20.00" meanMaxJamLengthInVehicles="0.33" meanMaxJamLengthInMeters="1.92" maxJamLengthInVehicles="2" maxJamLengthInMeters="13.50" jamLengthInVehiclesSum="293" jamLengthInMetersSum="1725.42" meanHaltingDuration="10.16" maxHaltingDuration="26.00" haltingDurationSum="325.00" meanIntervalHaltingDuration="10.16" maxIntervalHaltingDuration="26.00" intervalHaltingDurationSum="325.00" startedHalts="32.00" meanVehicleNumber="0.76" maxVehicleNumber="2" />
   <interval begin="5400.00" end="6300.00" id="myLoop1" sampledSeconds="3726.07" nVehEntered="177" nVehLeft="175" nVehSeen="180" meanSpeed="2.61" meanTimeLoss="16.75" meanOccupancy="39.70" maxOccupancy="68.38" meanMaxJamLengthInVehicles="2.29" meanMaxJamLengthInMeters="15.54" maxJamLengthInVehicles="7" maxJamLengthInMeters="50.00" jamLengthInVehiclesSum="2062" jamLengthInMetersSum="13982.40" meanHaltingDuration="12.14" maxHaltingDuration="31.00" haltingDurationSum="2247.00" meanIntervalHaltingDuration="12.14" maxIntervalHaltingDuration="31.00" intervalHaltingDurationSum="2247.00" startedHalts="185.00" meanVehicleNumber="4.33" maxVehicleNumber="7" />
   <interval begin="5400.00" end="6300.00" id="myLoop2" sampledSeconds="539.39" nVehEntered="50" nVehLeft="50" nVehSeen="50" meanSpeed="5.10" meanTimeLoss="6.72" meanOccupancy="5.70" maxOccupancy="20.00" meanMaxJamLengthInVehicles="0.26" meanMaxJamLengthInMeters="1.55" maxJamLengthInVehicles="2" maxJamLengthInMeters="12.93" jamLengthInVehiclesSum="232" jamLengthInMetersSum="1398.92" meanHaltingDuration="12.60" maxHaltingDuration="28.00" haltingDurationSum="252.00" meanIntervalHaltingDuration="12.60" maxIntervalHaltingDuration="28.00" intervalHaltingDurationSum="252.00" startedHalts="20.00" meanVehicleNumber="0.66" maxVehicleNumber="3" />
   <interval begin="5400.00" end="6300.00" id="myLoop3" sampledSeconds="3661.78" nVehEntered="179" nVehLeft="178" nVehSeen="182" meanSpeed="2.69" meanTimeLoss="16.18" meanOccupancy="38.93" maxOccupancy="67.99" meanMaxJamLengthInVehicles="2.24" meanMaxJamLengthInMeters="15.16" maxJamLengthInVehicles="7" maxJamLengthInMeters="50.00" jamLengthInVehiclesSum="2013" jamLengthInMetersSum="13647.58" meanHaltingDuration="12.18" maxHaltingDuration="31.00" haltingDurationSum="2193.00" meanIntervalHaltingDuration="12.18" maxIntervalHaltingDuration="31.00" intervalHaltingDurationSum="2193.00" startedHalts="180.00" meanVehicleNumber="4.26" maxVehicleNumber="7" />
   <interval begin="5400.00" end="6300.00" id="myLoop4" sampledSeconds="564.48" nVehEntered="50" nVehLeft="50" nVehSeen="50" meanSpeed="4.87" meanTimeLoss="7.35" meanOccupancy="5.99" maxOccupancy="20.00" meanMaxJamLengthInVehicles="0.28" meanMaxJamLengthInMeters="1.66" maxJamLengthInVehicles="2" maxJamLengthInMeters="12.87" jamLengthInVehiclesSum="253" jamLengthInMetersSum="1497.89" meanHaltingDuration="12.50" maxHaltingDuration="27.00" haltingDurationSum="275.00" meanIntervalHaltingDuration="12.50" maxIntervalHaltingDuration="27.00" intervalHaltingDurationSum="275.00" startedHalts="22.00" meanVehicleNumber="0.68" maxVehicleNumber="3" />
   <interval begin="6300.00" end="7200.00" id="myLoop1" sampledSeconds="3847.88" nVehEntered="169" nVehLeft="167" nVehSeen="174" meanSpeed="2.39" meanTimeLoss="18.26" meanOccupancy="41.02" maxOccupancy="68.32" meanMaxJamLengthInVehicles="2.53" meanMaxJamLengthInMeters="17.20" maxJamLengthInVehicles="7" maxJamLengthInMeters="50.00" jamLengthInVehiclesSum="2274" jamLengthInMetersSum="15482.57" meanHaltingDuration="13.59" maxHaltingDuration="41.00" haltingDurationSum="2459.00" meanIntervalHaltingDuration="13.55" maxIntervalHaltingDuration="41.00" intervalHaltingDurationSum="2452.00" startedHalts="178.00" meanVehicleNumber="4.46" maxVehicleNumber="7" />
   <interval begin="6300.00" end="7200.00" id="myLoop2" sampledSeconds="598.56" nVehEntered="50" nVehLeft="50" nVehSeen="50" meanSpeed="4.59" meanTimeLoss="7.93" meanOccupancy="6.30" maxOccupancy="30.00" meanMaxJamLengthInVehicles="0.29" meanMaxJamLengthInMeters="1.67" maxJamLengthInVehicles="2" maxJamLengthInMeters="13.07" jamLengthInVehiclesSum="263" jamLengthInMetersSum="1506.44" meanHaltingDuration="10.39" maxHaltingDuration="32.00" haltingDurationSum="291.00" meanIntervalHaltingDuration="10.39" maxIntervalHaltingDuration="32.00" intervalHaltingDurationSum="291.00" startedHalts="28.00" meanVehicleNumber="0.72" maxVehicleNumber="3" />
   <interval begin="6300.00" end="7200.00" id="myLoop3" sampledSeconds="3927.38" nVehEntered="169" nVehLeft="166" nVehSeen="173" meanSpeed="2.34" meanTimeLoss="18.83" meanOccupancy="41.69" maxOccupancy="67.99" meanMaxJamLengthInVehicles="2.57" meanMaxJamLengthInMeters="17.54" maxJamLengthInVehicles="7" maxJamLengthInMeters="50.00" jamLengthInVehiclesSum="2315" jamLengthInMetersSum="15787.92" meanHaltingDuration="13.59" maxHaltingDuration="41.00" haltingDurationSum="2501.00" meanIntervalHaltingDuration="13.57" maxIntervalHaltingDuration="41.00" intervalHaltingDurationSum="2497.00" startedHalts="182.00" meanVehicleNumber="4.53" maxVehicleNumber="7" />
   <interval begin="6300.00" end="7200.00" id="myLoop4" sampledSeconds="629.16" nVehEntered="50" nVehLeft="50" nVehSeen="50" meanSpeed="4.37" meanTimeLoss="8.52" meanOccupancy="6.69" maxOccupancy="40.00" meanMaxJamLengthInVehicles="0.32" meanMaxJamLengthInMeters="1.90" maxJamLengthInVehicles="2" maxJamLengthInMeters="13.54" jamLengthInVehiclesSum="288" jamLengthInMetersSum="1710.46" meanHaltingDuration="10.93" maxHaltingDuration="36.00" haltingDurationSum="317.00" meanIntervalHaltingDuration="10.93" maxIntervalHaltingDuration="36.00" intervalHaltingDurationSum="317.00" startedHalts="29.00" meanVehicleNumber="0.75" maxVehicleNumber="4" />
   <interval begin="7200.00" end="8100.00" id="myLoop1" sampledSeconds="3110.58" nVehEntered="181" nVehLeft="184" nVehSeen="188" meanSpeed="3.24" meanTimeLoss="12.64" meanOccupancy="32.89" maxOccupancy="67.99" meanMaxJamLengthInVehicles="1.70" meanMaxJamLengthInMeters="11.40" maxJamLengthInVehicles="7" maxJamLengthInMeters="50.00" jamLengthInVehiclesSum="1527" jamLengthInMetersSum="10260.95" meanHaltingDuration="11.05" maxHaltingDuration="26.00" haltingDurationSum="1780.00" meanIntervalHaltingDuration="10.44" maxIntervalHaltingDuration="26.00" intervalHaltingDurationSum="1681.00" startedHalts="154.00" meanVehicleNumber="3.66" maxVehicleNumber="7" />
   <interval begin="7200.00" end="8100.00" id="myLoop2" sampledSeconds="838.96" nVehEntered="50" nVehLeft="50" nVehSeen="50" meanSpeed="3.28" meanTimeLoss="12.87" meanOccupancy="8.99" maxOccupancy="40.00" meanMaxJamLengthInVehicles="0.52" meanMaxJamLengthInMeters="3.14" maxJamLengthInVehicles="4" maxJamLengthInMeters="27.55" jamLengthInVehiclesSum="468" jamLengthInMetersSum="2823.61" meanHaltingDuration="13.31" maxHaltingDuration="45.00" haltingDurationSum="506.00" meanIntervalHaltingDuration="13.31" maxIntervalHaltingDuration="45.00" intervalHaltingDurationSum="506.00" startedHalts="38.00" meanVehicleNumber="0.99" maxVehicleNumber="4" />
   <interval begin="7200.00" end="8100.00" id="myLoop3" sampledSeconds="2994.10" nVehEntered="181" nVehLeft="184" nVehSeen="188" meanSpeed="3.37" meanTimeLoss="11.99" meanOccupancy="31.65" maxOccupancy="69.64" meanMaxJamLengthInVehicles="1.62" meanMaxJamLengthInMeters="10.79" maxJamLengthInVehicles="7" maxJamLengthInMeters="50.00" jamLengthInVehiclesSum="1455" jamLengthInMetersSum="9717.00" meanHaltingDuration="10.85" maxHaltingDuration="27.00" haltingDurationSum="1703.00" meanIntervalHaltingDuration="10.22" maxIntervalHaltingDuration="27.00" intervalHaltingDurationSum="1605.00" startedHalts="150.00" meanVehicleNumber="3.53" maxVehicleNumber="7" />
   <interval begin="7200.00" end="8100.00" id="myLoop4" sampledSeconds="809.18" nVehEntered="50" nVehLeft="50" nVehSeen="50" meanSpeed="3.40" meanTimeLoss="12.21" meanOccupancy="8.64" maxOccupancy="40.00" meanMaxJamLengthInVehicles="0.49" meanMaxJamLengthInMeters="2.87" maxJamLengthInVehicles="4" maxJamLengthInMeters="27.58" jamLengthInVehiclesSum="438" jamLengthInMetersSum="2580.83" meanHaltingDuration="12.23" maxHaltingDuration="46.00" haltingDurationSum="477.00" meanIntervalHaltingDuration="12.23" maxIntervalHaltingDuration="46.00" intervalHaltingDurationSum="477.00" startedHalts="39.00" meanVehicleNumber="0.95" maxVehicleNumber="4" />
   <interval begin="8100.00" end="9000.00" id="myLoop1" sampledSeconds="2903.91" nVehEntered="176" nVehLeft="178" nVehSeen="180" meanSpeed="3.33" meanTimeLoss="12.24" meanOccupancy="30.98" maxOccupancy="67.99" meanMaxJamLengthInVehicles="1.57" meanMaxJamLengthInMeters="10.44" maxJamLengthInVehicles="7" maxJamLengthInMeters="50.00" jamLengthInVehiclesSum="1410" jamLengthInMetersSum="9396.68" meanHaltingDuration="10.50" maxHaltingDuration="31.00" haltingDurationSum="1585.00" meanIntervalHaltingDuration="10.31" maxIntervalHaltingDuration="23.00" intervalHaltingDurationSum="1557.00" startedHalts="147.00" meanVehicleNumber="3.44" maxVehicleNumber="7" />
   <interval begin="8100.00" end="9000.00" id="myLoop2" sampledSeconds="778.82" nVehEntered="50" nVehLeft="50" nVehSeen="50" meanSpeed="3.53" meanTimeLoss="11.66" meanOccupancy="8.35" maxOccupancy="40.00" meanMaxJamLengthInVehicles="0.46" meanMaxJamLengthInMeters="2.86" maxJamLengthInVehicles="4" maxJamLengthInMeters="27.61" jamLengthInVehiclesSum="418" jamLengthInMetersSum="2571.24" meanHaltingDuration="13.29" maxHaltingDuration="60.00" haltingDurationSum="452.00" meanIntervalHaltingDuration="13.29" maxIntervalHaltingDuration="60.00" intervalHaltingDurationSum="452.00" startedHalts="34.00" meanVehicleNumber="0.92" maxVehicleNumber="4" />
   <interval begin="8100.00" end="9000.00" id="myLoop3" sampledSeconds="2706.17" nVehEntered="175" nVehLeft="178" nVehSeen="179" meanSpeed="3.57" meanTimeLoss="11.19" meanOccupancy="28.84" maxOccupancy="67.99" meanMaxJamLengthInVehicles="1.38" meanMaxJamLengthInMeters="9.12" maxJamLengthInVehicles="7" maxJamLengthInMeters="49.00" jamLengthInVehiclesSum="1243" jamLengthInMetersSum="8212.15" meanHaltingDuration="9.72" maxHaltingDuration="29.00" haltingDurationSum="1410.00" meanIntervalHaltingDuration="9.54" maxIntervalHaltingDuration="22.00" intervalHaltingDurationSum="1384.00" startedHalts="141.00" meanVehicleNumber="3.20" maxVehicleNumber="7" />
   <interval begin="8100.00" end="9000.00" id="myLoop4" sampledSeconds="824.11" nVehEntered="50" nVehLeft="50" nVehSeen="50" meanSpeed="3.34" meanTimeLoss="12.38" meanOccupancy="8.80" maxOccupancy="40.00" meanMaxJamLengthInVehicles="0.52" meanMaxJamLengthInMeters="3.14" maxJamLengthInVehicles="4" maxJamLengthInMeters="27.85" jamLengthInVehiclesSum="464" jamLengthInMetersSum="2824.50" meanHaltingDuration="14.65" maxHaltingDuration="60.00" haltingDurationSum="498.00" meanIntervalHaltingDuration="14.65" maxIntervalHaltingDuration="60.00" intervalHaltingDurationSum="498.00" startedHalts="34.00" meanVehicleNumber="0.98" maxVehicleNumber="4" />
</detector>
