<?xml version="1.0" encoding="UTF-8"?>

<!-- generated on 2024-05-27 08:59:08 by Eclipse SUMO GUI Version 1.20.0
<configuration xmlns:xsi="http://www.w3.org/2001/XMLSchema-instance" xsi:noNamespaceSchemaLocation="http://sumo.dlr.de/xsd/sumoConfiguration.xsd">

    <input>
        <net-file value="sumo_rl/nets/2way-single-intersection/single-intersection.net.xml"/>
        <route-files value="sumo_rl/nets/2way-single-intersection/single-intersection-vhvh.rou.xml"/>
    </input>

    <processing>
        <time-to-teleport value="-1"/>
        <waiting-time-memory value="1000"/>
        <max-depart-delay value="-1"/>
    </processing>

    <report>
        <no-warnings value="true"/>
    </report>

    <traci_server>
        <remote-port value="55483"/>
    </traci_server>

    <random_number>
        <random value="true"/>
    </random_number>

    <gui_only>
        <quit-on-end value="true"/>
        <start value="true"/>
    </gui_only>

</configuration>
-->

<detector xmlns:xsi="http://www.w3.org/2001/XMLSchema-instance" xsi:noNamespaceSchemaLocation="http://sumo.dlr.de/xsd/det_e2_file.xsd">
   <interval begin="0.00" end="900.00" id="myLoop1" sampledSeconds="2118.88" nVehEntered="174" nVehLeft="174" nVehSeen="174" meanSpeed="4.52" meanTimeLoss="8.20" meanOccupancy="22.51" maxOccupancy="50.00" meanMaxJamLengthInVehicles="0.82" meanMaxJamLengthInMeters="5.15" maxJamLengthInVehicles="5" maxJamLengthInMeters="35.36" jamLengthInVehiclesSum="737" jamLengthInMetersSum="4631.22" meanHaltingDuration="6.99" maxHaltingDuration="12.00" haltingDurationSum="860.00" meanIntervalHaltingDuration="6.99" maxIntervalHaltingDuration="12.00" intervalHaltingDurationSum="860.00" startedHalts="123.00" meanVehicleNumber="2.54" maxVehicleNumber="6" />
   <interval begin="0.00" end="900.00" id="myLoop2" sampledSeconds="569.21" nVehEntered="50" nVehLeft="50" nVehSeen="50" meanSpeed="4.83" meanTimeLoss="7.37" meanOccupancy="5.99" maxOccupancy="20.00" meanMaxJamLengthInVehicles="0.23" meanMaxJamLengthInMeters="1.32" maxJamLengthInVehicles="2" maxJamLengthInMeters="13.50" jamLengthInVehiclesSum="204" jamLengthInMetersSum="1186.59" meanHaltingDuration="6.83" maxHaltingDuration="15.00" haltingDurationSum="239.00" meanIntervalHaltingDuration="6.83" maxIntervalHaltingDuration="15.00" intervalHaltingDurationSum="239.00" startedHalts="35.00" meanVehicleNumber="0.69" maxVehicleNumber="2" />
   <interval begin="0.00" end="900.00" id="myLoop3" sampledSeconds="2275.13" nVehEntered="174" nVehLeft="173" nVehSeen="174" meanSpeed="4.20" meanTimeLoss="9.03" meanOccupancy="24.16" maxOccupancy="60.00" meanMaxJamLengthInVehicles="0.91" meanMaxJamLengthInMeters="5.78" maxJamLengthInVehicles="6" maxJamLengthInMeters="42.60" jamLengthInVehiclesSum="816" jamLengthInMetersSum="5202.27" meanHaltingDuration="7.00" maxHaltingDuration="13.00" haltingDurationSum="952.00" meanIntervalHaltingDuration="7.00" maxIntervalHaltingDuration="13.00" intervalHaltingDurationSum="952.00" startedHalts="136.00" meanVehicleNumber="2.72" maxVehicleNumber="6" />
   <interval begin="0.00" end="900.00" id="myLoop4" sampledSeconds="568.53" nVehEntered="50" nVehLeft="50" nVehSeen="50" meanSpeed="4.84" meanTimeLoss="7.39" meanOccupancy="5.96" maxOccupancy="20.00" meanMaxJamLengthInVehicles="0.23" meanMaxJamLengthInMeters="1.35" maxJamLengthInVehicles="2" maxJamLengthInMeters="13.50" jamLengthInVehiclesSum="208" jamLengthInMetersSum="1218.42" meanHaltingDuration="7.50" maxHaltingDuration="14.00" haltingDurationSum="240.00" meanIntervalHaltingDuration="7.50" maxIntervalHaltingDuration="14.00" intervalHaltingDurationSum="240.00" startedHalts="32.00" meanVehicleNumber="0.69" maxVehicleNumber="2" />
   <interval begin="900.00" end="1800.00" id="myLoop1" sampledSeconds="2244.99" nVehEntered="175" nVehLeft="172" nVehSeen="175" meanSpeed="4.25" meanTimeLoss="8.93" meanOccupancy="23.86" maxOccupancy="60.00" meanMaxJamLengthInVehicles="0.93" meanMaxJamLengthInMeters="5.85" maxJamLengthInVehicles="5" maxJamLengthInMeters="35.37" jamLengthInVehiclesSum="834" jamLengthInMetersSum="5267.51" meanHaltingDuration="7.27" maxHaltingDuration="16.00" haltingDurationSum="967.00" meanIntervalHaltingDuration="7.27" maxIntervalHaltingDuration="16.00" intervalHaltingDurationSum="967.00" startedHalts="133.00" meanVehicleNumber="2.69" maxVehicleNumber="7" />
   <interval begin="900.00" end="1800.00" id="myLoop2" sampledSeconds="647.29" nVehEntered="50" nVehLeft="50" nVehSeen="50" meanSpeed="4.25" meanTimeLoss="8.88" meanOccupancy="6.85" maxOccupancy="38.52" meanMaxJamLengthInVehicles="0.31" meanMaxJamLengthInMeters="1.81" maxJamLengthInVehicles="2" maxJamLengthInMeters="13.50" jamLengthInVehiclesSum="275" jamLengthInMetersSum="1631.51" meanHaltingDuration="8.64" maxHaltingDuration="32.00" haltingDurationSum="311.00" meanIntervalHaltingDuration="8.64" maxIntervalHaltingDuration="32.00" intervalHaltingDurationSum="311.00" startedHalts="36.00" meanVehicleNumber="0.78" maxVehicleNumber="4" />
   <interval begin="900.00" end="1800.00" id="myLoop3" sampledSeconds="2219.35" nVehEntered="176" nVehLeft="173" nVehSeen="177" meanSpeed="4.30" meanTimeLoss="8.64" meanOccupancy="23.61" maxOccupancy="60.00" meanMaxJamLengthInVehicles="0.89" meanMaxJamLengthInMeters="5.62" maxJamLengthInVehicles="5" maxJamLengthInMeters="36.14" jamLengthInVehiclesSum="803" jamLengthInMetersSum="5057.32" meanHaltingDuration="7.08" maxHaltingDuration="15.00" haltingDurationSum="935.00" meanIntervalHaltingDuration="7.08" maxIntervalHaltingDuration="15.00" intervalHaltingDurationSum="935.00" startedHalts="132.00" meanVehicleNumber="2.66" maxVehicleNumber="7" />
   <interval begin="900.00" end="1800.00" id="myLoop4" sampledSeconds="534.21" nVehEntered="50" nVehLeft="50" nVehSeen="50" meanSpeed="5.15" meanTimeLoss="6.58" meanOccupancy="5.60" maxOccupancy="20.00" meanMaxJamLengthInVehicles="0.20" meanMaxJamLengthInMeters="1.21" maxJamLengthInVehicles="2" maxJamLengthInMeters="12.72" jamLengthInVehiclesSum="183" jamLengthInMetersSum="1086.90" meanHaltingDuration="6.90" maxHaltingDuration="11.00" haltingDurationSum="214.00" meanIntervalHaltingDuration="6.90" maxIntervalHaltingDuration="11.00" intervalHaltingDurationSum="214.00" startedHalts="31.00" meanVehicleNumber="0.65" maxVehicleNumber="2" />
   <interval begin="1800.00" end="2700.00" id="myLoop1" sampledSeconds="2463.32" nVehEntered="175" nVehLeft="175" nVehSeen="178" meanSpeed="3.91" meanTimeLoss="9.93" meanOccupancy="26.25" maxOccupancy="63.92" meanMaxJamLengthInVehicles="1.06" meanMaxJamLengthInMeters="6.77" maxJamLengthInVehicles="6" maxJamLengthInMeters="42.99" jamLengthInVehiclesSum="953" jamLengthInMetersSum="6096.65" meanHaltingDuration="7.35" maxHaltingDuration="16.00" haltingDurationSum="1103.00" meanIntervalHaltingDuration="7.35" maxIntervalHaltingDuration="16.00" intervalHaltingDurationSum="1103.00" startedHalts="150.00" meanVehicleNumber="2.93" maxVehicleNumber="7" />
   <interval begin="1800.00" end="2700.00" id="myLoop2" sampledSeconds="676.74" nVehEntered="50" nVehLeft="50" nVehSeen="50" meanSpeed="4.06" meanTimeLoss="9.54" meanOccupancy="7.15" maxOccupancy="20.00" meanMaxJamLengthInVehicles="0.30" meanMaxJamLengthInMeters="1.73" maxJamLengthInVehicles="2" maxJamLengthInMeters="13.50" jamLengthInVehiclesSum="270" jamLengthInMetersSum="1555.28" meanHaltingDuration="7.28" maxHaltingDuration="21.00" haltingDurationSum="313.00" meanIntervalHaltingDuration="7.28" maxIntervalHaltingDuration="21.00" intervalHaltingDurationSum="313.00" startedHalts="43.00" meanVehicleNumber="0.81" maxVehicleNumber="2" />
   <interval begin="1800.00" end="2700.00" id="myLoop3" sampledSeconds="2371.15" nVehEntered="174" nVehLeft="175" nVehSeen="178" meanSpeed="4.06" meanTimeLoss="9.40" meanOccupancy="25.25" maxOccupancy="60.00" meanMaxJamLengthInVehicles="0.99" meanMaxJamLengthInMeters="6.33" maxJamLengthInVehicles="6" maxJamLengthInMeters="43.00" jamLengthInVehiclesSum="893" jamLengthInMetersSum="5696.31" meanHaltingDuration="6.99" maxHaltingDuration="12.00" haltingDurationSum="1042.00" meanIntervalHaltingDuration="6.99" maxIntervalHaltingDuration="12.00" intervalHaltingDurationSum="1042.00" startedHalts="149.00" meanVehicleNumber="2.83" maxVehicleNumber="7" />
   <interval begin="1800.00" end="2700.00" id="myLoop4" sampledSeconds="609.37" nVehEntered="50" nVehLeft="50" nVehSeen="50" meanSpeed="4.51" meanTimeLoss="8.21" meanOccupancy="6.40" maxOccupancy="20.00" meanMaxJamLengthInVehicles="0.24" meanMaxJamLengthInMeters="1.43" maxJamLengthInVehicles="2" maxJamLengthInMeters="12.83" jamLengthInVehiclesSum="219" jamLengthInMetersSum="1284.69" meanHaltingDuration="6.21" maxHaltingDuration="14.00" haltingDurationSum="261.00" meanIntervalHaltingDuration="6.21" maxIntervalHaltingDuration="14.00" intervalHaltingDurationSum="261.00" startedHalts="42.00" meanVehicleNumber="0.74" maxVehicleNumber="2" />
   <interval begin="2700.00" end="3600.00" id="myLoop1" sampledSeconds="2338.60" nVehEntered="175" nVehLeft="176" nVehSeen="178" meanSpeed="4.13" meanTimeLoss="9.24" meanOccupancy="24.85" maxOccupancy="67.43" meanMaxJamLengthInVehicles="1.00" meanMaxJamLengthInMeters="6.37" maxJamLengthInVehicles="7" maxJamLengthInMeters="49.00" jamLengthInVehiclesSum="897" jamLengthInMetersSum="5735.76" meanHaltingDuration="7.74" maxHaltingDuration="15.00" haltingDurationSum="1030.00" meanIntervalHaltingDuration="7.74" maxIntervalHaltingDuration="15.00" intervalHaltingDurationSum="1030.00" startedHalts="133.00" meanVehicleNumber="2.79" maxVehicleNumber="7" />
   <interval begin="2700.00" end="3600.00" id="myLoop2" sampledSeconds="529.39" nVehEntered="50" nVehLeft="50" nVehSeen="50" meanSpeed="5.19" meanTimeLoss="6.53" meanOccupancy="5.60" maxOccupancy="20.00" meanMaxJamLengthInVehicles="0.20" meanMaxJamLengthInMeters="1.18" maxJamLengthInVehicles="2" maxJamLengthInMeters="13.50" jamLengthInVehiclesSum="180" jamLengthInMetersSum="1059.35" meanHaltingDuration="6.62" maxHaltingDuration="12.00" haltingDurationSum="212.00" meanIntervalHaltingDuration="6.62" maxIntervalHaltingDuration="12.00" intervalHaltingDurationSum="212.00" startedHalts="32.00" meanVehicleNumber="0.65" maxVehicleNumber="2" />
   <interval begin="2700.00" end="3600.00" id="myLoop3" sampledSeconds="2457.16" nVehEntered="175" nVehLeft="176" nVehSeen="178" meanSpeed="3.93" meanTimeLoss="9.82" meanOccupancy="26.16" maxOccupancy="67.54" meanMaxJamLengthInVehicles="1.07" meanMaxJamLengthInMeters="6.91" maxJamLengthInVehicles="6" maxJamLengthInMeters="43.30" jamLengthInVehiclesSum="964" jamLengthInMetersSum="6219.23" meanHaltingDuration="7.48" maxHaltingDuration="16.00" haltingDurationSum="1115.00" meanIntervalHaltingDuration="7.46" maxIntervalHaltingDuration="16.00" intervalHaltingDurationSum="1112.00" startedHalts="148.00" meanVehicleNumber="2.93" maxVehicleNumber="7" />
   <interval begin="2700.00" end="3600.00" id="myLoop4" sampledSeconds="586.69" nVehEntered="50" nVehLeft="50" nVehSeen="50" meanSpeed="4.69" meanTimeLoss="7.72" meanOccupancy="6.16" maxOccupancy="20.00" meanMaxJamLengthInVehicles="0.24" meanMaxJamLengthInMeters="1.42" maxJamLengthInVehicles="2" maxJamLengthInMeters="13.52" jamLengthInVehiclesSum="220" jamLengthInMetersSum="1276.80" meanHaltingDuration="6.95" maxHaltingDuration="16.00" haltingDurationSum="257.00" meanIntervalHaltingDuration="6.95" maxIntervalHaltingDuration="16.00" intervalHaltingDurationSum="257.00" startedHalts="37.00" meanVehicleNumber="0.70" maxVehicleNumber="2" />
   <interval begin="3600.00" end="4500.00" id="myLoop1" sampledSeconds="2296.88" nVehEntered="175" nVehLeft="173" nVehSeen="177" meanSpeed="4.17" meanTimeLoss="9.05" meanOccupancy="24.49" maxOccupancy="60.00" meanMaxJamLengthInVehicles="0.94" meanMaxJamLengthInMeters="5.96" maxJamLengthInVehicles="5" maxJamLengthInMeters="36.51" jamLengthInVehiclesSum="843" jamLengthInMetersSum="5363.98" meanHaltingDuration="7.02" maxHaltingDuration="13.00" haltingDurationSum="983.00" meanIntervalHaltingDuration="7.02" maxIntervalHaltingDuration="13.00" intervalHaltingDurationSum="983.00" startedHalts="140.00" meanVehicleNumber="2.75" maxVehicleNumber="6" />
   <interval begin="3600.00" end="4500.00" id="myLoop2" sampledSeconds="469.63" nVehEntered="50" nVehLeft="50" nVehSeen="50" meanSpeed="5.86" meanTimeLoss="5.32" meanOccupancy="4.90" maxOccupancy="20.00" meanMaxJamLengthInVehicles="0.13" meanMaxJamLengthInMeters="0.77" maxJamLengthInVehicles="2" maxJamLengthInMeters="13.50" jamLengthInVehiclesSum="118" jamLengthInMetersSum="697.14" meanHaltingDuration="4.69" maxHaltingDuration="11.00" haltingDurationSum="150.00" meanIntervalHaltingDuration="4.69" maxIntervalHaltingDuration="11.00" intervalHaltingDurationSum="150.00" startedHalts="32.00" meanVehicleNumber="0.57" maxVehicleNumber="2" />
   <interval begin="3600.00" end="4500.00" id="myLoop3" sampledSeconds="2354.28" nVehEntered="175" nVehLeft="174" nVehSeen="177" meanSpeed="4.08" meanTimeLoss="9.34" meanOccupancy="25.10" maxOccupancy="61.78" meanMaxJamLengthInVehicles="0.98" meanMaxJamLengthInMeters="6.23" maxJamLengthInVehicles="5" maxJamLengthInMeters="35.32" jamLengthInVehiclesSum="879" jamLengthInMetersSum="5609.55" meanHaltingDuration="7.28" maxHaltingDuration="12.00" haltingDurationSum="1019.00" meanIntervalHaltingDuration="7.28" maxIntervalHaltingDuration="12.00" intervalHaltingDurationSum="1019.00" startedHalts="140.00" meanVehicleNumber="2.80" maxVehicleNumber="7" />
   <interval begin="3600.00" end="4500.00" id="myLoop4" sampledSeconds="468.54" nVehEntered="50" nVehLeft="50" nVehSeen="50" meanSpeed="5.87" meanTimeLoss="5.37" meanOccupancy="4.88" maxOccupancy="20.00" meanMaxJamLengthInVehicles="0.13" meanMaxJamLengthInMeters="0.75" maxJamLengthInVehicles="2" maxJamLengthInMeters="12.63" jamLengthInVehiclesSum="118" jamLengthInMetersSum="678.43" meanHaltingDuration="4.93" maxHaltingDuration="11.00" haltingDurationSum="148.00" meanIntervalHaltingDuration="4.93" maxIntervalHaltingDuration="11.00" intervalHaltingDurationSum="148.00" startedHalts="30.00" meanVehicleNumber="0.58" maxVehicleNumber="2" />
   <interval begin="4500.00" end="5400.00" id="myLoop1" sampledSeconds="2324.54" nVehEntered="176" nVehLeft="178" nVehSeen="180" meanSpeed="4.18" meanTimeLoss="8.95" meanOccupancy="24.72" maxOccupancy="60.00" meanMaxJamLengthInVehicles="0.95" meanMaxJamLengthInMeters="5.97" maxJamLengthInVehicles="5" maxJamLengthInMeters="35.58" jamLengthInVehiclesSum="853" jamLengthInMetersSum="5376.71" meanHaltingDuration="7.27" maxHaltingDuration="17.00" haltingDurationSum="989.00" meanIntervalHaltingDuration="7.27" maxIntervalHaltingDuration="17.00" intervalHaltingDurationSum="989.00" startedHalts="136.00" meanVehicleNumber="2.78" maxVehicleNumber="6" />
   <interval begin="4500.00" end="5400.00" id="myLoop2" sampledSeconds="576.75" nVehEntered="50" nVehLeft="50" nVehSeen="50" meanSpeed="4.77" meanTimeLoss="7.56" meanOccupancy="6.08" maxOccupancy="20.00" meanMaxJamLengthInVehicles="0.25" meanMaxJamLengthInMeters="1.44" maxJamLengthInVehicles="2" maxJamLengthInMeters="13.50" jamLengthInVehiclesSum="222" jamLengthInMetersSum="1298.67" meanHaltingDuration="7.73" maxHaltingDuration="25.00" haltingDurationSum="255.00" meanIntervalHaltingDuration="7.73" maxIntervalHaltingDuration="25.00" intervalHaltingDurationSum="255.00" startedHalts="33.00" meanVehicleNumber="0.70" maxVehicleNumber="2" />
   <interval begin="4500.00" end="5400.00" id="myLoop3" sampledSeconds="2428.83" nVehEntered="176" nVehLeft="177" nVehSeen="179" meanSpeed="3.99" meanTimeLoss="9.62" meanOccupancy="25.81" maxOccupancy="60.00" meanMaxJamLengthInVehicles="1.03" meanMaxJamLengthInMeters="6.56" maxJamLengthInVehicles="5" maxJamLengthInMeters="36.25" jamLengthInVehiclesSum="923" jamLengthInMetersSum="5906.03" meanHaltingDuration="7.50" maxHaltingDuration="17.00" haltingDurationSum="1065.00" meanIntervalHaltingDuration="7.50" maxIntervalHaltingDuration="17.00" intervalHaltingDurationSum="1065.00" startedHalts="142.00" meanVehicleNumber="2.90" maxVehicleNumber="6" />
   <interval begin="4500.00" end="5400.00" id="myLoop4" sampledSeconds="542.45" nVehEntered="50" nVehLeft="50" nVehSeen="50" meanSpeed="5.07" meanTimeLoss="6.84" meanOccupancy="5.69" maxOccupancy="20.00" meanMaxJamLengthInVehicles="0.20" meanMaxJamLengthInMeters="1.15" maxJamLengthInVehicles="2" maxJamLengthInMeters="12.75" jamLengthInVehiclesSum="184" jamLengthInMetersSum="1038.98" meanHaltingDuration="6.58" maxHaltingDuration="25.00" haltingDurationSum="217.00" meanIntervalHaltingDuration="6.58" maxIntervalHaltingDuration="25.00" intervalHaltingDurationSum="217.00" startedHalts="33.00" meanVehicleNumber="0.66" maxVehicleNumber="2" />
   <interval begin="5400.00" end="6300.00" id="myLoop1" sampledSeconds="2002.06" nVehEntered="174" nVehLeft="173" nVehSeen="176" meanSpeed="4.77" meanTimeLoss="7.45" meanOccupancy="21.21" maxOccupancy="67.95" meanMaxJamLengthInVehicles="0.77" meanMaxJamLengthInMeters="4.80" maxJamLengthInVehicles="7" maxJamLengthInMeters="49.00" jamLengthInVehiclesSum="689" jamLengthInMetersSum="4316.31" meanHaltingDuration="7.21" maxHaltingDuration="17.00" haltingDurationSum="800.00" meanIntervalHaltingDuration="7.21" maxIntervalHaltingDuration="17.00" intervalHaltingDurationSum="800.00" startedHalts="111.00" meanVehicleNumber="2.42" maxVehicleNumber="7" />
   <interval begin="5400.00" end="6300.00" id="myLoop2" sampledSeconds="550.98