<?xml version="1.0" encoding="UTF-8"?>

<!-- generated on 2024-05-29 11:54:25 by Eclipse SUMO sumo Version 1.20.0
<configuration xmlns:xsi="http://www.w3.org/2001/XMLSchema-instance" xsi:noNamespaceSchemaLocation="http://sumo.dlr.de/xsd/sumoConfiguration.xsd">

    <input>
        <net-file value="sumo_rl/nets/2way-single-intersection/single-intersection.net.xml"/>
        <route-files value="sumo_rl/nets/2way-single-intersection/single-intersection-vhvh.rou.xml"/>
    </input>

    <processing>
        <time-to-teleport value="-1"/>
        <waiting-time-memory value="1000"/>
        <max-depart-delay value="-1"/>
    </processing>

    <report>
        <no-warnings value="true"/>
    </report>

    <traci_server>
<<<<<<< HEAD
        <remote-port value="48211"/>
=======
        <remote-port value="54293"/>
>>>>>>> dc942aef31fa9379d8f16363db5fce4a12e4ad1e
    </traci_server>

    <random_number>
        <random value="true"/>
    </random_number>

    <gui_only>
        <quit-on-end value="true"/>
        <start value="true"/>
    </gui_only>

</configuration>
-->

<detector xmlns:xsi="http://www.w3.org/2001/XMLSchema-instance" xsi:noNamespaceSchemaLocation="http://sumo.dlr.de/xsd/det_e2_file.xsd">
   <interval begin="0.00" end="900.00" id="myLoop1" sampledSeconds="1509.94" nVehEntered="174" nVehLeft="173" nVehSeen="174" meanSpeed="6.33" meanTimeLoss="4.66" meanOccupancy="15.82" maxOccupancy="47.99" meanMaxJamLengthInVehicles="0.38" meanMaxJamLengthInMeters="2.28" maxJamLengthInVehicles="3" maxJamLengthInMeters="21.00" jamLengthInVehiclesSum="346" jamLengthInMetersSum="2056.42" meanHaltingDuration="5.55" maxHaltingDuration="12.00" haltingDurationSum="422.00" meanIntervalHaltingDuration="5.55" maxIntervalHaltingDuration="12.00" intervalHaltingDurationSum="422.00" startedHalts="76.00" meanVehicleNumber="1.87" maxVehicleNumber="5" />
   <interval begin="0.00" end="900.00" id="myLoop2" sampledSeconds="606.44" nVehEntered="50" nVehLeft="50" nVehSeen="50" meanSpeed="4.53" meanTimeLoss="8.12" meanOccupancy="6.38" maxOccupancy="20.00" meanMaxJamLengthInVehicles="0.25" meanMaxJamLengthInMeters="1.44" maxJamLengthInVehicles="2" maxJamLengthInMeters="12.74" jamLengthInVehiclesSum="221" jamLengthInMetersSum="1291.97" meanHaltingDuration="6.39" maxHaltingDuration="11.00" haltingDurationSum="262.00" meanIntervalHaltingDuration="6.39" maxIntervalHaltingDuration="11.00" intervalHaltingDurationSum="262.00" startedHalts="41.00" meanVehicleNumber="0.73" maxVehicleNumber="2" />
   <interval begin="0.00" end="900.00" id="myLoop3" sampledSeconds="1608.96" nVehEntered="174" nVehLeft="173" nVehSeen="174" meanSpeed="5.94" meanTimeLoss="5.26" meanOccupancy="16.86" maxOccupancy="49.33" meanMaxJamLengthInVehicles="0.45" meanMaxJamLengthInMeters="2.74" maxJamLengthInVehicles="4" maxJamLengthInMeters="27.60" jamLengthInVehiclesSum="407" jamLengthInMetersSum="2468.89" meanHaltingDuration="5.90" maxHaltingDuration="11.00" haltingDurationSum="490.00" meanIntervalHaltingDuration="5.90" maxIntervalHaltingDuration="11.00" intervalHaltingDurationSum="490.00" startedHalts="83.00" meanVehicleNumber="1.98" maxVehicleNumber="5" />
   <interval begin="0.00" end="900.00" id="myLoop4" sampledSeconds="579.84" nVehEntered="50" nVehLeft="50" nVehSeen="50" meanSpeed="4.74" meanTimeLoss="7.58" meanOccupancy="6.08" maxOccupancy="20.00" meanMaxJamLengthInVehicles="0.23" meanMaxJamLengthInMeters="1.35" maxJamLengthInVehicles="2" maxJamLengthInMeters="13.51" jamLengthInVehiclesSum="209" jamLengthInMetersSum="1213.51" meanHaltingDuration="6.65" maxHaltingDuration="11.00" haltingDurationSum="246.00" meanIntervalHaltingDuration="6.65" maxIntervalHaltingDuration="11.00" intervalHaltingDurationSum="246.00" startedHalts="37.00" meanVehicleNumber="0.70" maxVehicleNumber="2" />
   <interval begin="900.00" end="1800.00" id="myLoop1" sampledSeconds="1547.02" nVehEntered="175" nVehLeft="173" nVehSeen="176" meanSpeed="6.21" meanTimeLoss="4.87" meanOccupancy="16.17" maxOccupancy="40.17" meanMaxJamLengthInVehicles="0.43" meanMaxJamLengthInMeters="2.54" maxJamLengthInVehicles="4" maxJamLengthInMeters="28.96" jamLengthInVehiclesSum="383" jamLengthInMetersSum="2282.32" meanHaltingDuration="6.04" maxHaltingDuration="11.00" haltingDurationSum="459.00" meanIntervalHaltingDuration="6.04" maxIntervalHaltingDuration="11.00" intervalHaltingDurationSum="459.00" startedHalts="76.00" meanVehicleNumber="1.91" maxVehicleNumber="5" />
   <interval begin="900.00" end="1800.00" id="myLoop2" sampledSeconds="632.23" nVehEntered="50" nVehLeft="50" nVehSeen="50" meanSpeed="4.35" meanTimeLoss="8.57" meanOccupancy="6.68" maxOccupancy="20.00" meanMaxJamLengthInVehicles="0.28" meanMaxJamLengthInMeters="1.68" maxJamLengthInVehicles="2" maxJamLengthInMeters="13.51" jamLengthInVehiclesSum="253" jamLengthInMetersSum="1514.04" meanHaltingDuration="7.33" maxHaltingDuration="12.00" haltingDurationSum="293.00" meanIntervalHaltingDuration="7.33" maxIntervalHaltingDuration="12.00" intervalHaltingDurationSum="293.00" startedHalts="40.00" meanVehicleNumber="0.76" maxVehicleNumber="2" />
   <interval begin="900.00" end="1800.00" id="myLoop3" sampledSeconds="1505.10" nVehEntered="175" nVehLeft="173" nVehSeen="176" meanSpeed="6.35" meanTimeLoss="4.59" meanOccupancy="15.83" maxOccupancy="40.00" meanMaxJamLengthInVehicles="0.39" meanMaxJamLengthInMeters="2.31" maxJamLengthInVehicles="3" maxJamLengthInMeters="21.00" jamLengthInVehiclesSum="354" jamLengthInMetersSum="2079.66" meanHaltingDuration="5.92" maxHaltingDuration="13.00" haltingDurationSum="426.00" meanIntervalHaltingDuration="5.92" maxIntervalHaltingDuration="13.00" intervalHaltingDurationSum="426.00" startedHalts="72.00" meanVehicleNumber="1.85" maxVehicleNumber="5" />
   <interval begin="900.00" end="1800.00" id="myLoop4" sampledSeconds="597.31" nVehEntered="50" nVehLeft="50" nVehSeen="50" meanSpeed="4.60" meanTimeLoss="7.90" meanOccupancy="6.30" maxOccupancy="20.00" meanMaxJamLengthInVehicles="0.26" meanMaxJamLengthInMeters="1.51" maxJamLengthInVehicles="2" maxJamLengthInMeters="13.50" jamLengthInVehiclesSum="231" jamLengthInMetersSum="1361.58" meanHaltingDuration="7.42" maxHaltingDuration="12.00" haltingDurationSum="267.00" meanIntervalHaltingDuration="7.42" maxIntervalHaltingDuration="12.00" intervalHaltingDurationSum="267.00" startedHalts="36.00" meanVehicleNumber="0.72" maxVehicleNumber="2" />
   <interval begin="1800.00" end="2023.00" id="myLoop1" sampledSeconds="453.69" nVehEntered="43" nVehLeft="46" nVehSeen="46" meanSpeed="5.29" meanTimeLoss="6.05" meanOccupancy="19.33" maxOccupancy="44.74" meanMaxJamLengthInVehicles="0.55" meanMaxJamLengthInMeters="3.31" maxJamLengthInVehicles="3" maxJamLengthInMeters="21.55" jamLengthInVehiclesSum="122" jamLengthInMetersSum="738.70" meanHaltingDuration="6.08" maxHaltingDuration="11.00" haltingDurationSum="152.00" meanIntervalHaltingDuration="5.84" maxIntervalHaltingDuration="11.00" intervalHaltingDurationSum="146.00" startedHalts="24.00" meanVehicleNumber="2.22" maxVehicleNumber="5" />
   <interval begin="1800.00" end="2023.00" id="myLoop2" sampledSeconds="166.94" nVehEntered="12" nVehLeft="12" nVehSeen="12" meanSpeed="3.95" meanTimeLoss="9.83" meanOccupancy="7.14" maxOccupancy="20.00" meanMaxJamLengthInVehicles="0.30" meanMaxJamLengthInMeters="1.76" maxJamLengthInVehicles="2" maxJamLengthInMeters="12.78" jamLengthInVehiclesSum="66" jamLengthInMetersSum="393.41" meanHaltingDuration="6.50" maxHaltingDuration="10.00" haltingDurationSum="78.00" meanIntervalHaltingDuration="6.50" maxIntervalHaltingDuration="10.00" intervalHaltingDurationSum="78.00" startedHalts="12.00" meanVehicleNumber="0.80" maxVehicleNumber="2" />
   <interval begin="1800.00" end="2023.00" id="myLoop3" sampledSeconds="462.64" nVehEntered="43" nVehLeft="46" nVehSeen="46" meanSpeed="5.28" meanTimeLoss="6.05" meanOccupancy="19.64" maxOccupancy="46.99" meanMaxJamLengthInVehicles="0.57" meanMaxJamLengthInMeters="3.43" maxJamLengthInVehicles="3" maxJamLengthInMeters="21.39" jamLengthInVehiclesSum="127" jamLengthInMetersSum="764.02" meanHaltingDuration="5.92" maxHaltingDuration="11.00" haltingDurationSum="160.00" meanIntervalHaltingDuration="5.67" maxIntervalHaltingDuration="11.00" intervalHaltingDurationSum="153.00" startedHalts="26.00" meanVehicleNumber="2.29" maxVehicleNumber="5" />
   <interval begin="1800.00" end="2023.00" id="myLoop4" sampledSeconds="159.71" nVehEntered="12" nVehLeft="12" nVehSeen="12" meanSpeed="4.13" meanTimeLoss="9.45" meanOccupancy="6.79" maxOccupancy="20.00" meanMaxJamLengthInVehicles="0.29" meanMaxJamLengthInMeters="1.69" maxJamLengthInVehicles="2" maxJamLengthInMeters="12.84" jamLengthInVehiclesSum="65" jamLengthInMetersSum="375.91" meanHaltingDuration="6.91" maxHaltingDuration="11.00" haltingDurationSum="76.00" meanIntervalHaltingDuration="6.91" maxIntervalHaltingDuration="11.00" intervalHaltingDurationSum="76.00" startedHalts="11.00" meanVehicleNumber="0.76" maxVehicleNumber="2" />
</detector>
