<?xml version="1.0" encoding="UTF-8"?>

<!-- generated on 2024-05-26 23:40:20 by Eclipse SUMO GUI Version 1.20.0
<configuration xmlns:xsi="http://www.w3.org/2001/XMLSchema-instance" xsi:noNamespaceSchemaLocation="http://sumo.dlr.de/xsd/sumoConfiguration.xsd">

    <input>
        <net-file value="sumo_rl/nets/single-intersection/single-intersection.net.xml"/>
        <route-files value="sumo_rl/nets/single-intersection/single-intersection.rou.xml"/>
    </input>

    <processing>
        <time-to-teleport value="-1"/>
        <waiting-time-memory value="1000"/>
        <max-depart-delay value="-1"/>
    </processing>

    <report>
        <no-warnings value="true"/>
    </report>

    <traci_server>
        <remote-port value="60739"/>
    </traci_server>

    <random_number>
        <random value="true"/>
    </random_number>

    <gui_only>
        <quit-on-end value="true"/>
        <start value="true"/>
    </gui_only>

</configuration>
-->

<detector xmlns:xsi="http://www.w3.org/2001/XMLSchema-instance" xsi:noNamespaceSchemaLocation="http://sumo.dlr.de/xsd/det_e2_file.xsd">
   <interval begin="0.00" end="900.00" id="myLoop1" sampledSeconds="1456.32" nVehEntered="98" nVehLeft="97" nVehSeen="98" meanSpeed="3.54" meanTimeLoss="11.10" meanOccupancy="15.23" maxOccupancy="66.17" meanMaxJamLengthInVehicles="0.80" meanMaxJamLengthInMeters="5.25" maxJamLengthInVehicles="7" maxJamLengthInMeters="48.10" jamLengthInVehiclesSum="730" jamLengthInMetersSum="4754.30" meanHaltingDuration="9.87" maxHaltingDuration="26.00" haltingDurationSum="809.00" meanIntervalHaltingDuration="9.87" maxIntervalHaltingDuration="26.00" intervalHaltingDurationSum="809.00" startedHalts="105.00" meanVehicleNumber="1.72" maxVehicleNumber="7" />
   <interval begin="0.00" end="900.00" id="myLoop2" sampledSeconds="1345.28" nVehEntered="100" nVehLeft="100" nVehSeen="100" meanSpeed="3.94" meanTimeLoss="9.56" meanOccupancy="14.09" maxOccupancy="60.00" meanMaxJamLengthInVehicles="0.68" meanMaxJamLengthInMeters="4.40" maxJamLengthInVehicles="6" maxJamLengthInMeters="43.39" jamLengthInVehiclesSum="617" jamLengthInMetersSum="3989.82" meanHaltingDuration="10.10" maxHaltingDuration="25.00" haltingDurationSum="677.00" meanIntervalHaltingDuration="10.10" maxIntervalHaltingDuration="25.00" intervalHaltingDurationSum="677.00" startedHalts="83.00" meanVehicleNumber="1.60" maxVehicleNumber="7" />
   <interval begin="0.00" end="900.00" id="myLoop3" sampledSeconds="660.37" nVehEntered="153" nVehLeft="153" nVehSeen="153" meanSpeed="12.43" meanTimeLoss="0.40" meanOccupancy="6.68" maxOccupancy="30.00" meanMaxJamLengthInVehicles="0.00" meanMaxJamLengthInMeters="0.00" maxJamLengthInVehicles="0" maxJamLengthInMeters="0.00" jamLengthInVehiclesSum="0" jamLengthInMetersSum="0.00" meanHaltingDuration="0.00" maxHaltingDuration="0.00" haltingDurationSum="0.00" meanIntervalHaltingDuration="0.00" maxIntervalHaltingDuration="0.00" intervalHaltingDurationSum="0.00" startedHalts="0.00" meanVehicleNumber="0.90" maxVehicleNumber="4" />
   <interval begin="0.00" end="900.00" id="myLoop4" sampledSeconds="639.17" nVehEntered="146" nVehLeft="146" nVehSeen="146" meanSpeed="12.45" meanTimeLoss="0.41" meanOccupancy="6.54" maxOccupancy="30.00" meanMaxJamLengthInVehicles="0.00" meanMaxJamLengthInMeters="0.00" maxJamLengthInVehicles="0" maxJamLengthInMeters="0.00" jamLengthInVehiclesSum="0" jamLengthInMetersSum="0.00" meanHaltingDuration="0.00" maxHaltingDuration="0.00" haltingDurationSum="0.00" meanIntervalHaltingDuration="0.00" maxIntervalHaltingDuration="0.00" intervalHaltingDurationSum="0.00" startedHalts="0.00" meanVehicleNumber="0.87" maxVehicleNumber="4" />
   <interval begin="0.00" end="900.00" id="myLoop5" sampledSeconds="362.37" nVehEntered="89" nVehLeft="88" nVehSeen="89" meanSpeed="12.88" meanTimeLoss="0.25" meanOccupancy="3.74" maxOccupancy="28.21" meanMaxJamLengthInVehicles="0.00" meanMaxJamLengthInMeters="0.00" maxJamLengthInVehicles="0" maxJamLengthInMeters="0.00" jamLengthInVehiclesSum="0" jamLengthInMetersSum="0.00" meanHaltingDuration="0.00" maxHaltingDuration="0.00" haltingDurationSum="0.00" meanIntervalHaltingDuration="0.00" maxIntervalHaltingDuration="0.00" intervalHaltingDurationSum="0.00" startedHalts="0.00" meanVehicleNumber="0.47" maxVehicleNumber="3" />
   <interval begin="0.00" end="900.00" id="myLoop6" sampledSeconds="362.37" nVehEntered="89" nVehLeft="88" nVehSeen="89" meanSpeed="12.88" meanTimeLoss="0.25" meanOccupancy="3.74" maxOccupancy="28.21" meanMaxJamLengthInVehicles="0.00" meanMaxJamLengthInMeters="0.00" maxJamLengthInVehicles="0" maxJamLengthInMeters="0.00" jamLengthInVehiclesSum="0" jamLengthInMetersSum="0.00" meanHaltingDuration="0.00" maxHaltingDuration="0.00" haltingDurationSum="0.00" meanIntervalHaltingDuration="0.00" maxIntervalHaltingDuration="0.00" intervalHaltingDurationSum="0.00" startedHalts="0.00" meanVehicleNumber="0.47" maxVehicleNumber="3" />
   <interval begin="0.00" end="900.00" id="myLoop7" sampledSeconds="4807.90" nVehEntered="152" nVehLeft="148" nVehSeen="152" meanSpeed="1.72" meanTimeLoss="27.67" meanOccupancy="50.76" maxOccupancy="68.91" meanMaxJamLengthInVehicles="3.30" meanMaxJamLengthInMeters="22.66" maxJamLengthInVehicles="7" maxJamLengthInMeters="50.00" jamLengthInVehiclesSum="3051" jamLengthInMetersSum="20836.46" meanHaltingDuration="10.72" maxHaltingDuration="42.00" haltingDurationSum="3365.00" meanIntervalHaltingDuration="10.72" maxIntervalHaltingDuration="42.00" intervalHaltingDurationSum="3365.00" startedHalts="314.00" meanVehicleNumber="5.51" maxVehicleNumber="7" />
   <interval begin="0.00" end="900.00" id="myLoop8" sampledSeconds="4790.47" nVehEntered="156" nVehLeft="152" nVehSeen="156" meanSpeed="1.77" meanTimeLoss="26.76" meanOccupancy="50.56" maxOccupancy="67.99" meanMaxJamLengthInVehicles="3.22" meanMaxJamLengthInMeters="22.11" maxJamLengthInVehicles="7" maxJamLengthInMeters="50.00" jamLengthInVehiclesSum="2983" jamLengthInMetersSum="20325.35" meanHaltingDuration="10.32" maxHaltingDuration="42.00" haltingDurationSum="3303.00" meanIntervalHaltingDuration="10.32" maxIntervalHaltingDuration="42.00" intervalHaltingDurationSum="3303.00" startedHalts="320.00" meanVehicleNumber="5.50" maxVehicleNumber="7" />
   <interval begin="900.00" end="1800.00" id="myLoop1" sampledSeconds="728.94" nVehEntered="87" nVehLeft="88" nVehSeen="88" meanSpeed="6.37" meanTimeLoss="4.44" meanOccupancy="7.46" maxOccupancy="50.00" meanMaxJamLengthInVehicles="0.24" meanMaxJamLengthInMeters="1.42" maxJamLengthInVehicles="4" maxJamLengthInMeters="27.56" jamLengthInVehiclesSum="213" jamLengthInMetersSum="1277.93" meanHaltingDuration="9.79" maxHaltingDuration="36.00" haltingDurationSum="235.00" meanIntervalHaltingDuration="9.79" maxIntervalHaltingDuration="36.00" intervalHaltingDurationSum="235.00" startedHalts="36.00" meanVehicleNumber="0.90" maxVehicleNumber="6" />
   <interval begin="900.00" end="1800.00" id="myLoop2" sampledSeconds="702.40" nVehEntered="91" nVehLeft="91" nVehSeen="91" meanSpeed="6.62" meanTimeLoss="4.08" meanOccupancy="7.09" maxOccupancy="45.09" meanMaxJamLengthInVehicles="0.23" meanMaxJamLengthInMeters="1.34" maxJamLengthInVehicles="4" maxJamLengthInMeters="27.60" jamLengthInVehiclesSum="203" jamLengthInMetersSum="1206.54" meanHaltingDuration="11.21" maxHaltingDuration="32.00" haltingDurationSum="213.00" meanIntervalHaltingDuration="11.21" maxIntervalHaltingDuration="32.00" intervalHaltingDurationSum="213.00" startedHalts="36.00" meanVehicleNumber="0.87" maxVehicleNumber="5" />
   <interval begin="900.00" end="1800.00" id="myLoop3" sampledSeconds="696.31" nVehEntered="161" nVehLeft="158" nVehSeen="161" meanSpeed="12.37" meanTimeLoss="0.43" meanOccupancy="7.04" maxOccupancy="30.00" meanMaxJamLengthInVehicles="0.00" meanMaxJamLengthInMeters="0.00" maxJamLengthInVehicles="0" maxJamLengthInMeters="0.00" jamLengthInVehiclesSum="0" jamLengthInMetersSum="0.00" meanHaltingDuration="0.00" maxHaltingDuration="0.00" haltingDurationSum="0.00" meanIntervalHaltingDuration="0.00" maxIntervalHaltingDuration="0.00" intervalHaltingDurationSum="0.00" startedHalts="0.00" meanVehicleNumber="0.95" maxVehicleNumber="4" />
   <interval begin="900.00" end="1800.00" id="myLoop4" sampledSeconds="648.42" nVehEntered="150" nVehLeft="147" nVehSeen="150" meanSpeed="12.53" meanTimeLoss="0.41" meanOccupancy="6.49" maxOccupancy="30.00" meanMaxJamLengthInVehicles="0.00" meanMaxJamLengthInMeters="0.00" maxJamLengthInVehicles="0" maxJamLengthInMeters="0.00" jamLengthInVehiclesSum="0" jamLengthInMetersSum="0.00" meanHaltingDuration="0.00" maxHaltingDuration="0.00" haltingDurationSum="0.00" meanIntervalHaltingDuration="0.00" maxIntervalHaltingDuration="0.00" intervalHaltingDurationSum="0.00" startedHalts="0.00" meanVehicleNumber="0.89" maxVehicleNumber="4" />
   <interval begin="900.00" end="1800.00" id="myLoop5" sampledSeconds="351.00" nVehEntered="85" nVehLeft="86" nVehSeen="86" meanSpeed="13.14" meanTimeLoss="0.25" meanOccupancy="3.57" maxOccupancy="30.00" meanMaxJamLengthInVehicles="0.00" meanMaxJamLengthInMeters="0.00" maxJamLengthInVehicles="0" maxJamLengthInMeters="0.00" jamLengthInVehiclesSum="0" jamLengthInMetersSum="0.00" meanHaltingDuration="0.00" maxHaltingDuration="0.00" haltingDurationSum="0.00" meanIntervalHaltingDuration="0.00" maxIntervalHaltingDuration="0.00" intervalHaltingDurationSum="0.00" startedHalts="0.00" meanVehicleNumber="0.46" maxVehicleNumber="3" />
   <interval begin="900.00" end="1800.00" id="myLoop6" sampledSeconds="351.00" nVehEntered="85" nVehLeft="86" nVehSeen="86" meanSpeed="13.14" meanTimeLoss="0.25" meanOccupancy="3.57" maxOccupancy="30.00" meanMaxJamLengthInVehicles="0.00" meanMaxJamLengthInMeters="0.00" maxJamLengthInVehicles="0" maxJamLengthInMeters="0.00" jamLengthInVehiclesSum="0" jamLengthInMetersSum="0.00" meanHaltingDuration="0.00" maxHaltingDuration="0.00" haltingDurationSum="0.00" meanIntervalHaltingDuration="0.00" maxIntervalHaltingDuration="0.00" intervalHaltingDurationSum="0.00" startedHalts="0.00" meanVehicleNumber="0.46" maxVehicleNumber="3" />
   <interval begin="900.00" end="1800.00" id="myLoop7" sampledSeconds="4981.64" nVehEntered="154" nVehLeft="153" nVehSeen="158" meanSpeed="1.69" meanTimeLoss="27.64" meanOccupancy="52.62" maxOccupancy="67.99" meanMaxJamLengthInVehicles="3.48" meanMaxJamLengthInMeters="23.93" maxJamLengthInVehicles="7" maxJamLengthInMeters="50.00" jamLengthInVehiclesSum="3219" jamLengthInMetersSum="22004.45" meanHaltingDuration="11.69" maxHaltingDuration="44.00" haltingDurationSum="3520.00" meanIntervalHaltingDuration="11.69" maxIntervalHaltingDuration="44.00" intervalHaltingDurationSum="3520.00" startedHalts="301.00" meanVehicleNumber="5.71" maxVehicleNumber="7" />
   <interval begin="900.00" end="1800.00" id="myLoop8" sampledSeconds="5001.34" nVehEntered="152" nVehLeft="151" nVehSeen="156" meanSpeed="1.67" meanTimeLoss="28.19" meanOccupancy="52.78" maxOccupancy="68.69" meanMaxJamLengthInVehicles="3.53" meanMaxJamLengthInMeters="24.39" maxJamLengthInVehicles="7" maxJamLengthInMeters="50.00" jamLengthInVehiclesSum="3272" jamLengthInMetersSum="22461.50" meanHaltingDuration="11.98" maxHaltingDuration="42.00" haltingDurationSum="3570.00" meanIntervalHaltingDuration="11.98" maxIntervalHaltingDuration="42.00" intervalHaltingDurationSum="3570.00" startedHalts="298.00" meanVehicleNumber="5.73" maxVehicleNumber="7" />
   <interval begin="1800.00" end="2631.00" id="myLoop1" sampledSeconds="480.59" nVehEntered="80" nVehLeft="79" nVehSeen="80" meanSpeed="8.80" meanTimeLoss="2.14" meanOccupancy="5.15" maxOccupancy="29.93" meanMaxJamLengthInVehicles="0.07" meanMaxJamLengthInMeters="0.37" maxJamLengthInVehicles="2" maxJamLengthInMeters="13.38" jamLengthInVehiclesSum="61" jamLengthInMetersSum="308.39" meanHaltingDuration="5.92" maxHaltingDuration="20.00" haltingDurationSum="71.00" meanIntervalHaltingDuration="5.92" maxIntervalHaltingDuration="20.00" intervalHaltingDurationSum="71.00" startedHalts="25.00" meanVehicleNumber="0.66" maxVehicleNumber="3" />
   <interval begin="1800.00" end="2631.00" id="myLoop2" sampledSeconds="534.32" nVehEntered="82" nVehLeft="80" nVehSeen="82" meanSpeed="8.07" meanTimeLoss="2.70" meanOccupancy="5.77" maxOccupancy="30.00" meanMaxJamLengthInVehicles="0.11" meanMaxJamLengthInMeters="0.56" maxJamLengthInVehicles="2" maxJamLengthInMeters="13.55" jamLengthInVehiclesSum="88" jamLengthInMetersSum="463.72" meanHaltingDuration="6.67" maxHaltingDuration="25.00" haltingDurationSum="100.00" meanIntervalHaltingDuration="6.67" maxIntervalHaltingDuration="25.00" intervalHaltingDurationSum="100.00" startedHalts="27.00" meanVehicleNumber="0.73" maxVehicleNumber="3" />
   <interval begin="1800.00" end="2631.00" id="myLoop3" sampledSeconds="511.05" nVehEntered="114" nVehLeft="117" nVehSeen="117" meanSpeed="12.31" meanTimeLoss="0.41" meanOccupancy="5.52" maxOccupancy="30.00" meanMaxJamLengthInVehicles="0.00" meanMaxJamLengthInMeters="0.00" maxJamLengthInVehicles="0" maxJamLengthInMeters="0.00" jamLengthInVehiclesSum="0" jamLengthInMetersSum="0.00" meanHaltingDuration="0.00" maxHaltingDuration="0.00" haltingDurationSum="0.00" meanIntervalHaltingDuration="0.00" maxIntervalHaltingDuration="0.00" intervalHaltingDurationSum="0.00" startedHalts="0.00" meanVehicleNumber="0.74" maxVehicleNumber="4" />
   <interval begin="1800.00" end="2631.00" id="myLoop4" sampledSeconds="463.59" nVehEntered="106" nVehLeft="109" nVehSeen="109" meanSpeed="12.62" meanTimeLoss="0.35" meanOccupancy="5.02" maxOccupancy="30.00" meanMaxJamLengthInVehicles="0.00" meanMaxJamLengthInMeters="0.00" maxJamLengthInVehicles="0" maxJamLengthInMeters="0.00" jamLengthInVehiclesSum="0" jamLengthInMetersSum="0.00" meanHaltingDuration="0.00" maxHaltingDuration="0.00" haltingDurationSum="0.00" meanIntervalHaltingDuration="0.00" maxIntervalHaltingDuration="0.00" intervalHaltingDurationSum="0.00" startedHalts="0.00" meanVehicleNumber="0.70" maxVehicleNumber="4" />
   <interval begin="1800.00" end="2631.00" id="myLoop5" sampledSeconds="290.86" nVehEntered="72" nVehLeft="72" nVehSeen="72" meanSpeed="12.93" meanTimeLoss="0.25" meanOccupancy="3.33" maxOccupancy="30.00" meanMaxJamLengthInVehicles="0.00" meanMaxJamLengthInMeters="0.00" maxJamLengthInVehicles="0" maxJamLengthInMeters="0.00" jamLengthInVehiclesSum="0" jamLengthInMetersSum="0.00" meanHaltingDuration="0.00" maxHaltingDuration="0.00" haltingDurationSum="0.00" meanIntervalHaltingDuration="0.00" maxIntervalHaltingDuration="0.00" intervalHaltingDurationSum="0.00" startedHalts="0.00" meanVehicleNumber="0.41" maxVehicleNumber="3" />
   <interval begin="1800.00" end="2631.00" id="myLoop6" sampledSeconds="290.86" nVehEntered="72" nVehLeft="72" nVehSeen="72" meanSpeed="12.93" meanTimeLoss="0.25" meanOccupancy="3.33" maxOccupancy="30.00" meanMaxJamLengthInVehicles="0.00" meanMaxJamLengthInMeters="0.00" maxJamLengthInVehicles="0" maxJamLengthInMeters="0.00" jamLengthInVehiclesSum="0" jamLengthInMetersSum="0.00" meanHaltingDuration="0.00" maxHaltingDuration="0.00" haltingDurationSum="0.00" meanIntervalHaltingDuration="0.00" maxIntervalHaltingDuration="0.00" intervalHaltingDurationSum="0.00" startedHalts="0.00" meanVehicleNumber="0.41" maxVehicleNumber="3" />
   <interval begin="1800.00" end="2631.00" id="myLoop7" sampledSeconds="4904.10" nVehEntered="107" nVehLeft="106" nVehSeen="112" meanSpeed="1.20" meanTimeLoss="39.95" meanOccupancy="56.22" maxOccupancy="68.78" meanMaxJamLengthInVehicles="3.99" meanMaxJamLengthInMeters="27.56" maxJamLengthInVehicles="7" maxJamLengthInMeters="50.00" jamLengthInVehiclesSum="3399" jamLengthInMetersSum="23313.09" meanHaltingDuration="12.01" maxHaltingDuration="46.00" haltingDurationSum="3711.00" meanIntervalHaltingDuration="11.99" maxIntervalHaltingDuration="46.00" intervalHaltingDurationSum="3706.00" startedHalts="307.00" meanVehicleNumber="6.03" maxVehicleNumber="7" />
   <interval begin="1800.00" end="2631.00" id="myLoop8" sampledSeconds="4862.97" nVehEntered="112" nVehLeft="111" nVehSeen="117" meanSpeed="1.26" meanTimeLoss="37.71" meanOccupancy="55.80" maxOccupancy="69.07" meanMaxJamLengthInVehicles="3.86" meanMaxJamLengthInMeters="26.64" maxJamLengthInVehicles="7" maxJamLengthInMeters="50.00" jamLengthInVehiclesSum="3274" jamLengthInMetersSum="22455.60" meanHaltingDuration="11.57" maxHaltingDuration="45.00" haltingDurationSum="3588.00" meanIntervalHaltingDuration="11.55" maxIntervalHaltingDuration="45.00" intervalHaltingDurationSum="3581.00" startedHalts="307.00" meanVehicleNumber="5.98" maxVehicleNumber="7" />
</detector>
